# vtk DataFile Version 2.0
Example Teapot data file
ASCII
DATASET POLYDATA
POINTS 2082 FLOAT
   3.50000E+00   2.19615E+00   1.80000E+01
   3.45947E+00   2.28939E+00   1.80538E+01
   3.45117E+00   2.35599E+00   1.80923E+01
   3.46924E+00   2.39596E+00   1.81154E+01
   3.50781E+00   2.40928E+00   1.81230E+01
   3.56103E+00   2.39596E+00   1.81154E+01
   3.62305E+00   2.35600E+00   1.80923E+01
   3.68799E+00   2.28939E+00   1.80538E+01
   3.75000E+00   2.19615E+00   1.80000E+01
   3.43000E+00   1.83959E+00   1.86176E+01
   3.39028E+00   1.93696E+00   1.86643E+01
   3.38215E+00   2.00441E+00   1.87013E+01
   3.39985E+00   2.04253E+00   1.87275E+01
   3.43766E+00   2.05192E+00   1.87420E+01
   3.48981E+00   2.03317E+00   1.87437E+01
   3.55059E+00   1.98690E+00   1.87316E+01
   3.61423E+00   1.91368E+00   1.87046E+01
   3.67500E+00   1.81412E+00   1.86617E+01
   3.22875E+00   1.50928E+00   1.91897E+01
   3.19136E+00   1.61047E+00   1.92298E+01
   3.18371E+00   1.67870E+00   1.92654E+01
   3.20037E+00   1.71512E+00   1.92946E+01
   3.23596E+00   1.72087E+00   1.93154E+01
   3.28505E+00   1.69710E+00   1.93258E+01
   3.34226E+00   1.64497E+00   1.93238E+01
   3.40217E+00   1.56563E+00   1.93074E+01
   3.45937E+00   1.46021E+00   1.92747E+01
   2.90937E+00   1.21178E+00   1.97050E+01
   2.87569E+00   1.31642E+00   1.97391E+01
   2.86879E+00   1.38535E+00   1.97735E+01
   2.88380E+00   1.42023E+00   1.98054E+01
   2.91587E+00   1.42270E+00   1.98318E+01
   2.96011E+00   1.39442E+00   1.98501E+01
   3.01166E+00   1.33701E+00   1.98572E+01
   3.06564E+00   1.25215E+00   1.98504E+01
   3.11719E+00   1.14146E+00   1.98268E+01
   2.48500E+00   9.53653E-01   2.01521E+01
   2.45623E+00   1.06128E+00   2.01810E+01
   2.45033E+00   1.13083E+00   2.02143E+01
   2.46316E+00   1.16438E+00   2.02485E+01
   2.49055E+00   1.16400E+00   2.02799E+01
   2.52834E+00   1.13179E+00   2.03050E+01
   2.57236E+00   1.06981E+00   2.03200E+01
   2.61847E+00   9.80159E-01   2.03215E+01
   2.66250E+00   8.64903E-01   2.03058E+01
   1.96875E+00   7.41466E-01   2.05196E+01
   1.94595E+00   8.51552E-01   2.05443E+01
   1.94128E+00   9.21602E-01   2.05767E+01
   1.95145E+00   9.54054E-01   2.06128E+01
   1.97315E+00   9.51342E-01   2.06483E+01
   2.00308E+00   9.15901E-01   2.06789E+01
   2.03796E+00   8.50167E-01   2.07005E+01
   2.07449E+00   7.56574E-01   2.07088E+01
   2.10938E+00   6.37559E-01   2.06996E+01
   1.37375E+00   5.81778E-01   2.07962E+01
   1.35784E+00   6.93713E-01   2.08176E+01
   1.35459E+00   7.64142E-01   2.08495E+01
   1.36168E+00   7.95770E-01   2.08870E+01
   1.37682E+00   7.91297E-01   2.09255E+01
   1.39771E+00   7.53429E-01   2.09603E+01
   1.42205E+00   6.84865E-01   2.09868E+01
   1.44754E+00   5.88310E-01   2.10002E+01
   1.47187E+00   4.66465E-01   2.09959E+01
   7.13125E-01   4.81153E-01   2.09705E+01
   7.04868E-01   5.94253E-01   2.09899E+01
   7.03176E-01   6.64921E-01   2.10213E+01
   7.06857E-01   6.96029E-01   2.10597E+01
   7.14717E-01   6.90448E-01   2.11001E+01
   7.25561E-01   6.51049E-01   2.11376E+01
   7.38196E-01   5.80703E-01   2.11672E+01
   7.51428E-01   4.82280E-01   2.11838E+01
   7.64062E-01   3.58653E-01   2.11826E+01
   0.00000E+00   4.46153E-01   2.10311E+01
   0.00000E+00   5.59658E-01   2.10498E+01
   0.00000E+00   6.30409E-01   2.10811E+01
   0.00000E+00   6.61337E-01   2.11198E+01
   0.00000E+00   6.55370E-01   2.11609E+01
   0.00000E+00   6.15438E-01   2.11993E+01
   0.00000E+00   5.44472E-01   2.12299E+01
   0.00000E+00   4.45400E-01   2.12477E+01
   0.00000E+00   3.21153E-01   2.12476E+01
  -7.77725E-01   4.81154E-01   2.09705E+01
  -7.48144E-01   5.94253E-01   2.09899E+01
  -7.30429E-01   6.64921E-01   2.10213E+01
  -7.22629E-01   6.96029E-01   2.10597E+01
  -7.22792E-01   6.90448E-01   2.11001E+01
  -7.28967E-01   6.51049E-01   2.11376E+01
  -7.39205E-01   5.80703E-01   2.11672E+01
  -7.51554E-01   4.82280E-01   2.11838E+01
  -7.64062E-01   3.58654E-01   2.11826E+01
  -1.46867E+00   5.81778E-01   2.07962E+01
  -1.42143E+00   6.93713E-01   2.08176E+01
  -1.39463E+00   7.64143E-01   2.08495E+01
  -1.38485E+00   7.95770E-01   2.08870E+01
  -1.38868E+00   7.91298E-01   2.09255E+01
  -1.40271E+00   7.53429E-01   2.09603E+01
  -1.42353E+00   6.84865E-01   2.09868E+01
  -1.44772E+00   5.88310E-01   2.10002E+01
  -1.47187E+00   4.66465E-01   2.09959E+01
  -2.06763E+00   7.41466E-01   2.05196E+01
  -2.01219E+00   8.51552E-01   2.05443E+01
  -1.98300E+00   9.21602E-01   2.05767E+01
  -1.97559E+00   9.54054E-01   2.06128E+01
  -1.98550E+00   9.51342E-01   2.06483E+01
  -2.00830E+00   9.15901E-01   2.06789E+01
  -2.03951E+00   8.50167E-01   2.07005E+01
  -2.07469E+00   7.56574E-01   2.07088E+01
  -2.10938E+00   6.37559E-01   2.06996E+01
  -2.56938E+00   9.53653E-01   2.01521E+01
  -2.51275E+00   1.06128E+00   2.01810E+01
  -2.48593E+00   1.13083E+00   2.02143E+01
  -2.48376E+00   1.16438E+00   2.02485E+01
  -2.50109E+00   1.16400E+00   2.02799E+01
  -2.53278E+00   1.13179E+00   2.03050E+01
  -2.57368E+00   1.06981E+00   2.03200E+01
  -2.61864E+00   9.80159E-01   2.03215E+01
  -2.66250E+00   8.64903E-01   2.03058E+01
  -2.96870E+00   1.21178E+00   1.97050E+01
  -2.91543E+00   1.31642E+00   1.97391E+01
  -2.89382E+00   1.38535E+00   1.97735E+01
  -2.89829E+00   1.42023E+00   1.98054E+01
  -2.92329E+00   1.42270E+00   1.98318E+01
  -2.96324E+00   1.39442E+00   1.98501E+01
  -3.01258E+00   1.33701E+00   1.98572E+01
  -3.06576E+00   1.25215E+00   1.98504E+01
  -3.11719E+00   1.14146E+00   1.98268E+01
  -3.26039E+00   1.50928E+00   1.91897E+01
  -3.21256E+00   1.61047E+00   1.92298E+01
  -3.19706E+00   1.67870E+00   1.92654E+01
  -3.20810E+00   1.71512E+00   1.92946E+01
  -3.23991E+00   1.72087E+00   1.93154E+01
  -3.28672E+00   1.69710E+00   1.93258E+01
  -3.34276E+00   1.64497E+00   1.93238E+01
  -3.40223E+00   1.56563E+00   1.93074E+01
  -3.45937E+00   1.46021E+00   1.92747E+01
  -3.43923E+00   1.83959E+00   1.86176E+01
  -3.39647E+00   1.93696E+00   1.86643E+01
  -3.38604E+00   2.00441E+00   1.87013E+01
  -3.40211E+00   2.04253E+00   1.87275E+01
  -3.43881E+00   2.05192E+00   1.87420E+01
  -3.49030E+00   2.03317E+00   1.87437E+01
  -3.55073E+00   1.98690E+00   1.87316E+01
  -3.61425E+00   1.91368E+00   1.87046E+01
  -3.67500E+00   1.81412E+00   1.86617E+01
  -3.50000E+00   2.19615E+00   1.80000E+01
  -3.45947E+00   2.28939E+00   1.80538E+01
  -3.45117E+00   2.35599E+00   1.80923E+01
  -3.46924E+00   2.39596E+00   1.81154E+01
  -3.50781E+00   2.40928E+00   1.81230E+01
  -3.56103E+00   2.39596E+00   1.81154E+01
  -3.62305E+00   2.35600E+00   1.80923E+01
  -3.68799E+00   2.28939E+00   1.80538E+01
  -3.75000E+00   2.19615E+00   1.80000E+01
  -3.43000E+00   2.55272E+00   1.73824E+01
  -3.39028E+00   2.64183E+00   1.74434E+01
  -3.38215E+00   2.70758E+00   1.74833E+01
  -3.39985E+00   2.74939E+00   1.75032E+01
  -3.43766E+00   2.76663E+00   1.75041E+01
  -3.48981E+00   2.75874E+00   1.74870E+01
  -3.55059E+00   2.72509E+00   1.74530E+01
  -3.61423E+00   2.66511E+00   1.74031E+01
  -3.67500E+00   2.57819E+00   1.73383E+01
  -3.22875E+00   2.88303E+00   1.68103E+01
  -3.19136E+00   2.96832E+00   1.68779E+01
  -3.18371E+00   3.03329E+00   1.69192E+01
  -3.20037E+00   3.07679E+00   1.69361E+01
  -3.23596E+00   3.09768E+00   1.69307E+01
  -3.28505E+00   3.09481E+00   1.69049E+01
  -3.34226E+00   3.06702E+00   1.68608E+01
  -3.40217E+00   3.01316E+00   1.68002E+01
  -3.45937E+00   2.93209E+00   1.67253E+01
  -2.90937E+00   3.18053E+00   1.62950E+01
  -2.87569E+00   3.26237E+00   1.63686E+01
  -2.86879E+00   3.32664E+00   1.64111E+01
  -2.88380E+00   3.37168E+00   1.64254E+01
  -2.91587E+00   3.39585E+00   1.64143E+01
  -2.96011E+00   3.39750E+00   1.63806E+01
  -3.01166E+00   3.37498E+00   1.63274E+01
  -3.06564E+00   3.32664E+00   1.62573E+01
  -3.11719E+00   3.25084E+00   1.61732E+01
  -2.48500E+00   3.43865E+00   1.58479E+01
  -2.45623E+00   3.51751E+00   1.59267E+01
  -2.45033E+00   3.58116E+00   1.59702E+01
  -2.46316E+00   3.62754E+00   1.59822E+01
  -2.49055E+00   3.65455E+00   1.59662E+01
  -2.52834E+00   3.66012E+00   1.59258E+01
  -2.57236E+00   3.64218E+00   1.58646E+01
  -2.61847E+00   3.59863E+00   1.57862E+01
  -2.66250E+00   3.52740E+00   1.56942E+01
  -1.96875E+00   3.65084E+00   1.54804E+01
  -1.94595E+00   3.72724E+00   1.55634E+01
  -1.94128E+00   3.79039E+00   1.56078E+01
  -1.95145E+00   3.83786E+00   1.56179E+01
  -1.97315E+00   3.86721E+00   1.55978E+01
  -2.00308E+00   3.87601E+00   1.55518E+01
  -2.03796E+00   3.86182E+00   1.54841E+01
  -2.07449E+00   3.82222E+00   1.53989E+01
  -2.10938E+00   3.75475E+00   1.53004E+01
  -1.37375E+00   3.81053E+00   1.52038E+01
  -1.35784E+00   3.88508E+00   1.52900E+01
  -1.35459E+00   3.94785E+00   1.53351E+01
  -1.36168E+00   3.99614E+00   1.53438E+01
  -1.37682E+00   4.02726E+00   1.53206E+01
  -1.39771E+00   4.03848E+00   1.52704E+01
  -1.42205E+00   4.02713E+00   1.51978E+01
  -1.44754E+00   3.99048E+00   1.51075E+01
  -1.47187E+00   3.92584E+00   1.50041E+01
  -7.13125E-01   3.91115E+00   1.50295E+01
  -7.04868E-01   3.98454E+00   1.51178E+01
  -7.03176E-01   4.04707E+00   1.51633E+01
  -7.06857E-01   4.09588E+00   1.51710E+01
  -7.14717E-01   4.12810E+00   1.51459E+01
  -7.25561E-01   4.14086E+00   1.50931E+01
  -7.38196E-01   4.13129E+00   1.50174E+01
  -7.51428E-01   4.09651E+00   1.49238E+01
  -7.64062E-01   4.03365E+00   1.48174E+01
   0.00000E+00   3.94615E+00   1.49689E+01
   0.00000E+00   4.01913E+00   1.50578E+01
   0.00000E+00   4.08158E+00   1.51035E+01
   0.00000E+00   4.13058E+00   1.51109E+01
   0.00000E+00   4.16318E+00   1.50852E+01
   0.00000E+00   4.17647E+00   1.50314E+01
   0.00000E+00   4.16752E+00   1.49546E+01
   0.00000E+00   4.13339E+00   1.48599E+01
   0.00000E+00   4.07115E+00   1.47524E+01
   7.13125E-01   3.91115E+00   1.50295E+01
   7.04868E-01   3.98454E+00   1.51178E+01
   7.03176E-01   4.04707E+00   1.51633E+01
   7.06857E-01   4.09588E+00   1.51710E+01
   7.14717E-01   4.12811E+00   1.51459E+01
[...]
POINT_DATA 2082
SCALARS Z-dimension float
LOOKUP_TABLE default
   1.80000E+01
   1.80538E+01
   1.80923E+01
   1.81154E+01
   1.81230E+01
   1.81154E+01
   1.80923E+01
   1.80538E+01
   1.80000E+01
   1.86176E+01
   1.86643E+01
   1.87013E+01
   1.87275E+01
   1.87420E+01
   1.87437E+01
   1.87316E+01
   1.87046E+01
   1.86617E+01
   1.91897E+01
   1.92298E+01
   1.92654E+01
   1.92946E+01
   1.93154E+01
   1.93258E+01
   1.93238E+01
   1.93074E+01
   1.92747E+01
   1.97050E+01
   1.97391E+01
   1.97735E+01
   1.98054E+01
   1.98318E+01
   1.98501E+01
   1.98572E+01
   1.98504E+01
   1.98268E+01
   2.01521E+01
   2.01810E+01
   2.02143E+01
   2.02485E+01
   2.02799E+01
   2.03050E+01
   2.03200E+01
   2.03215E+01
   2.03058E+01
   2.05196E+01
   2.05443E+01
   2.05767E+01
   2.06128E+01
   2.06483E+01
   2.06789E+01
   2.07005E+01
   2.07088E+01
   2.06996E+01
   2.07962E+01
   2.08176E+01
   2.08495E+01
   2.08870E+01
   2.09255E+01
   2.09603E+01
   2.09868E+01
   2.10002E+01
   2.09959E+01
   2.09705E+01
   2.09899E+01
   2.10213E+01
   2.10597E+01
   2.11001E+01
   2.11376E+01
   2.11672E+01
   2.11838E+01
   2.11826E+01
   2.10311E+01
   2.10498E+01
   2.10811E+01
   2.11198E+01
   2.11609E+01
   2.11993E+01
   2.12299E+01
   2.12477E+01
   2.12476E+01
   2.09705E+01
   2.09899E+01
   2.10213E+01
   2.10597E+01
   2.11001E+01
   2.11376E+01
   2.11672E+01
   2.11838E+01
   2.11826E+01
   2.07962E+01
   2.08176E+01
   2.08495E+01
   2.08870E+01
   2.09255E+01
   2.09603E+01
   2.09868E+01
   2.10002E+01
   2.09959E+01
   2.05196E+01
   2.05443E+01
   2.05767E+01
   2.06128E+01
   2.06483E+01
   2.06789E+01
   2.07005E+01
   2.07088E+01
   2.06996E+01
   2.01521E+01
   2.01810E+01
   2.02143E+01
   2.02485E+01
   2.02799E+01
   2.03050E+01
   2.03200E+01
   2.03215E+01
   2.03058E+01
   1.97050E+01
   1.97391E+01
   1.97735E+01
   1.98054E+01
   1.98318E+01
   1.98501E+01
   1.98572E+01
   1.98504E+01
   1.98268E+01
   1.91897E+01
   1.92298E+01
   1.92654E+01
   1.92946E+01
   1.93154E+01
   1.93258E+01
   1.93238E+01
   1.93074E+01
   1.92747E+01
   1.86176E+01
   1.86643E+01
   1.87013E+01
   1.87275E+01
   1.87420E+01
   1.87437E+01
   1.87316E+01
   1.87046E+01
   1.86617E+01
   1.80000E+01
   1.80538E+01
   1.80923E+01
   1.81154E+01
   1.81230E+01
   1.81154E+01
   1.80923E+01
   1.80538E+01
   1.80000E+01
   1.73824E+01
   1.74434E+01
   1.74833E+01
   1.75032E+01
   1.75041E+01
   1.74870E+01
   1.74530E+01
   1.74031E+01
   1.73383E+01
   1.68103E+01
   1.68779E+01
   1.69192E+01
   1.69361E+01
   1.69307E+01
   1.69049E+01
   1.68608E+01
   1.68002E+01
   1.67253E+01
   1.62950E+01
   1.63686E+01
   1.64111E+01
   1.64254E+01
   1.64143E+01
   1.63806E+01
   1.63274E+01
   1.62573E+01
   1.61732E+01
   1.58479E+01
   1.59267E+01
   1.59702E+01
   1.59822E+01
   1.59662E+01
   1.59258E+01
   1.58646E+01
   1.57862E+01
   1.56942E+01
   1.54804E+01
   1.55634E+01
   1.56078E+01
   1.56179E+01
   1.55978E+01
   1.55518E+01
   1.54841E+01
   1.53989E+01
   1.53004E+01
   1.52038E+01
   1.52900E+01
   1.53351E+01
   1.53438E+01
   1.53206E+01
   1.52704E+01
   1.51978E+01
   1.51075E+01
   1.50041E+01
   1.50295E+01
   1.51178E+01
   1.51633E+01
   1.51710E+01
   1.51459E+01
   1.50931E+01
   1.50174E+01
   1.49238E+01
   1.48174E+01
   1.49689E+01
   1.50578E+01
   1.51035E+01
   1.51109E+01
   1.50852E+01
   1.50314E+01
   1.49546E+01
   1.48599E+01
   1.47524E+01
   1.50295E+01
   1.51178E+01
   1.51633E+01
   1.51710E+01
   1.51459E+01
   1.50931E+01
   1.50174E+01
   1.49238E+01
   1.48174E+01
   1.52038E+01
   1.52900E+01
   1.53351E+01
   1.53438E+01
   1.53206E+01
   1.52704E+01
   1.51978E+01
   1.51075E+01
   1.50041E+01
   1.54804E+01
   1.55634E+01
   1.56078E+01
   1.56179E+01
   1.55978E+01
   1.55518E+01
   1.54841E+01
   1.53989E+01
   1.53004E+01
   1.58479E+01
   1.59267E+01
   1.59702E+01
   1.59822E+01
   1.59662E+01
   1.59258E+01
   1.58646E+01
   1.57862E+01
   1.56942E+01
   1.62950E+01
   1.63686E+01
   1.64111E+01
   1.64254E+01
   1.64143E+01
   1.63806E+01
   1.63274E+01
   1.62573E+01
   1.61732E+01
   1.68103E+01
   1.68779E+01
   1.69192E+01
   1.69361E+01
   1.69307E+01
   1.69049E+01
   1.68608E+01
   1.68002E+01
   1.67253E+01
   1.73824E+01
   1.74434E+01
   1.74833E+01
   1.75032E+01
   1.75041E+01
   1.74870E+01
   1.74530E+01
   1.74031E+01
   1.73383E+01
   1.77541E+01
   1.75093E+01
   1.72667E+01
   1.70273E+01
   1.67924E+01
   1.65630E+01
   1.63401E+01
   1.61250E+01
   1.84569E+01
   1.82520E+01
   1.80466E+01
   1.78407E+01
   1.76340E+01
   1.74263E+01
   1.72175E+01
   1.70073E+01
   1.91080E+01
   1.89400E+01
   1.87691E+01
   1.85941E+01
   1.84136E+01
   1.82260E+01
   1.80302E+01
   1.78246E+01
   1.96944E+01
   1.95596E+01
   1.94199E+01
   1.92728E+01
   1.91157E+01
   1.89464E+01
   1.87622E+01
   1.85607E+01
   2.02032E+01
   2.00973E+01
   1.99845E+01
   1.98615E+01
   1.97249E+01
   1.95713E+01
   1.93973E+01
   1.91994E+01
   2.06215E+01
   2.05393E+01
   2.04487E+01
   2.03456E+01
   2.02257E+01
   2.00851E+01
   1.99194E+01
   1.97244E+01
   2.09363E+01
   2.08719E+01
   2.07980E+01
   2.07098E+01
   2.06026E+01
   2.04717E+01
   2.03123E+01
   2.01195E+01
   2.11346E+01
   2.10815E+01
   2.10181E+01
   2.09393E+01
   2.08401E+01
   2.07153E+01
   2.05598E+01
   2.03685E+01
   2.12036E+01
   2.11544E+01
   2.10946E+01
   2.10192E+01
   2.09227E+01
   2.08001E+01
   2.06460E+01
   2.04551E+01
   2.11346E+01
   2.10815E+01
   2.10181E+01
   2.09393E+01
   2.08401E+01
   2.07153E+01
   2.05598E+01
   2.03685E+01
   2.09363E+01
   2.08719E+01
   2.07980E+01
   2.07098E+01
   2.06026E+01
   2.04717E+01
   2.03123E+01
   2.01195E+01
   2.06215E+01
   2.05393E+01
   2.04487E+01
   2.03456E+01
   2.02257E+01
   2.00851E+01
   1.99194E+01
   1.97244E+01
   2.02032E+01
   2.00973E+01
   1.99845E+01
   1.98615E+01
   1.97249E+01
   1.95713E+01
   1.93973E+01
   1.91994E+01
   1.96944E+01
   1.95596E+01
   1.94199E+01
   1.92728E+01
   1.91157E+01
   1.89464E+01
   1.87622E+01
   1.85607E+01
   1.91080E+01
   1.89400E+01
   1.87691E+01
   1.85941E+01
   1.84136E+01
   1.82260E+01
   1.80302E+01
   1.78246E+01
   1.84569E+01
   1.82520E+01
   1.80466E+01
   1.78407E+01
   1.76340E+01
   1.74263E+01
   1.72175E+01
   1.70073E+01
   1.77541E+01
   1.75093E+01
   1.72667E+01
   1.70273E+01
   1.67924E+01
   1.65630E+01
   1.63401E+01
   1.61250E+01
   1.70513E+01
   1.67666E+01
   1.64867E+01
   1.62140E+01
   1.59509E+01
   1.56997E+01
   1.54628E+01
   1.52427E+01
   1.64002E+01
   1.60786E+01
   1.57642E+01
   1.54605E+01
   1.51713E+01
   1.48999E+01
   1.46501E+01
   1.44254E+01
   1.58137E+01
   1.54589E+01
   1.51134E+01
   1.47819E+01
   1.44691E+01
   1.41796E+01
   1.39181E+01
   1.36893E+01
   1.53049E+01
   1.49213E+01
   1.45488E+01
   1.41931E+01
   1.38599E+01
   1.35546E+01
   1.32830E+01
   1.30506E+01
   1.48867E+01
   1.44793E+01
   1.40847E+01
   1.37091E+01
   1.33591E+01
   1.30409E+01
   1.27609E+01
   1.25256E+01
   1.45719E+01
   1.41467E+01
   1.37354E+01
   1.33449E+01
   1.29822E+01
   1.26543E+01
   1.23680E+01
   1.21305E+01
   1.43736E+01
   1.39371E+01
   1.35152E+01
   1.31153E+01
   1.27447E+01
   1.24106E+01
   1.21205E+01
   1.18815E+01
   1.43046E+01
   1.38642E+01
   1.34387E+01
   1.30355E+01
   1.26621E+01
   1.23259E+01
   1.20343E+01
   1.17949E+01
   1.43736E+01
   1.39371E+01
   1.35152E+01
   1.31153E+01
   1.27447E+01
   1.24106E+01
   1.21205E+01
   1.18815E+01
   1.45719E+01
   1.41467E+01
   1.37354E+01
   1.33449E+01
   1.29822E+01
   1.26543E+01
   1.23680E+01
   1.21305E+01
   1.48867E+01
   1.44793E+01
   1.40847E+01
   1.37091E+01
   1.33591E+01
   1.30409E+01
   1.27609E+01
   1.25256E+01
   1.53049E+01
   1.49213E+01
   1.45488E+01
   1.41931E+01
   1.38599E+01
   1.35546E+01
   1.32830E+01
   1.30506E+01
   1.58137E+01
   1.54589E+01
   1.51134E+01
   1.47819E+01
   1.44691E+01
   1.41796E+01
   1.39181E+01
   1.36893E+01
   1.64002E+01
   1.60786E+01
   1.57642E+01
   1.54605E+01
   1.51713E+01
   1.48999E+01
   1.46501E+01
   1.44254E+01
   1.70513E+01
   1.67666E+01
   1.64867E+01
   1.62140E+01
   1.59509E+01
   1.56997E+01
   1.54628E+01
   1.52427E+01
   1.59271E+01
   1.57544E+01
   1.56059E+01
   1.54805E+01
   1.53770E+01
   1.52944E+01
   1.52316E+01
   1.51875E+01
   1.67998E+01
   1.66022E+01
   1.64184E+01
   1.62524E+01
   1.61085E+01
   1.59906E+01
   1.59028E+01
   1.58492E+01
   1.76084E+01
   1.73876E+01
   1.71710E+01
   1.69676E+01
   1.67861E+01
   1.66355E+01
   1.65246E+01
   1.64622E+01
   1.83366E+01
   1.80949E+01
   1.78489E+01
   1.76117E+01
   1.73965E+01
   1.72164E+01
   1.70846E+01
   1.70143E+01
   1.89684E+01
   1.87087E+01
   1.84371E+01
   1.81706E+01
   1.79260E+01
   1.77203E+01
   1.75704E+01
   1.74933E+01
   1.94878E+01
   1.92132E+01
   1.89206E+01
   1.86300E+01
   1.83613E+01
   1.81346E+01
   1.79699E+01
   1.78871E+01
   1.98787E+01
   1.95929E+01
   1.92845E+01
   1.89757E+01
   1.86889E+01
   1.84464E+01
   1.82704E+01
   1.81834E+01
   2.01250E+01
   1.98322E+01
   1.95138E+01
   1.91936E+01
   1.88953E+01
   1.86428E+01
   1.84599E+01
   1.83701E+01
   2.02107E+01
   1.99154E+01
   1.95935E+01
   1.92693E+01
   1.89671E+01
   1.87112E+01
   1.85257E+01
   1.84351E+01
   2.01250E+01
   1.98322E+01
   1.95138E+01
   1.91936E+01
   1.88953E+01
   1.86428E+01
   1.84599E+01
   1.83701E+01
   1.98787E+01
   1.95929E+01
   1.92845E+01
   1.89757E+01
   1.86889E+01
   1.84464E+01
   1.82704E+01
   1.81834E+01
   1.94878E+01
   1.92132E+01
   1.89206E+01
   1.86300E+01
   1.83613E+01
   1.81346E+01
   1.79699E+01
   1.78871E+01
   1.89684E+01
   1.87087E+01
   1.84371E+01
   1.81706E+01
   1.79260E+01
   1.77203E+01
   1.75704E+01
   1.74933E+01
   1.83366E+01
   1.80949E+01
   1.78489E+01
   1.76117E+01
   1.73965E+01
   1.72164E+01
   1.70846E+01
   1.70143E+01
   1.76084E+01
   1.73876E+01
   1.71710E+01
   1.69676E+01
   1.67861E+01
   1.66355E+01
   1.65246E+01
   1.64622E+01
   1.67998E+01
   1.66022E+01
   1.64184E+01
   1.62524E+01
   1.61085E+01
   1.59906E+01
   1.59028E+01
   1.58492E+01
   1.59271E+01
   1.57544E+01
   1.56059E+01
   1.54805E+01
   1.53770E+01
   1.52944E+01
   1.52316E+01
   1.51875E+01
   1.50543E+01
   1.49066E+01
   1.47934E+01
   1.47085E+01
   1.46455E+01
   1.45983E+01
   1.45605E+01
   1.45258E+01
   1.42457E+01
   1.41212E+01
   1.40408E+01
   1.39933E+01
   1.39679E+01
   1.39534E+01
   1.39387E+01
   1.39128E+01
   1.35175E+01
   1.34138E+01
   1.33629E+01
   1.33492E+01
   1.33576E+01
   1.33725E+01
   1.33787E+01
   1.33607E+01
   1.28857E+01
   1.28001E+01
   1.27747E+01
   1.27904E+01
   1.28280E+01
   1.28685E+01
   1.28928E+01
   1.28817E+01
   1.23663E+01
   1.22956E+01
   1.22912E+01
   1.23310E+01
   1.23927E+01
   1.24543E+01
   1.24934E+01
   1.24879E+01
   1.19754E+01
   1.19159E+01
   1.19273E+01
   1.19852E+01
   1.20651E+01
   1.21425E+01
   1.21928E+01
   1.21916E+01
   1.17291E+01
   1.16766E+01
   1.16980E+01
   1.17674E+01
   1.18587E+01
   1.19460E+01
   1.20034E+01
   1.20049E+01
   1.16435E+01
   1.15934E+01
   1.16183E+01
   1.16916E+01
   1.17869E+01
   1.18777E+01
   1.19375E+01
   1.19399E+01
   1.17291E+01
   1.16766E+01
   1.16980E+01
   1.17674E+01
   1.18587E+01
   1.19460E+01
   1.20034E+01
   1.20049E+01
   1.19754E+01
   1.19159E+01
   1.19273E+01
   1.19852E+01
   1.20651E+01
   1.21425E+01
   1.21928E+01
   1.21916E+01
   1.23663E+01
   1.22956E+01
   1.22912E+01
   1.23310E+01
   1.23927E+01
   1.24543E+01
   1.24934E+01
   1.24879E+01
   1.28857E+01
   1.28001E+01
   1.27747E+01
   1.27904E+01
   1.28280E+01
   1.28685E+01
   1.28928E+01
   1.28817E+01
   1.35175E+01
   1.34138E+01
   1.33629E+01
   1.33492E+01
   1.33576E+01
   1.33725E+01
   1.33787E+01
   1.33607E+01
   1.42457E+01
   1.41212E+01
   1.40408E+01
   1.39933E+01
   1.39679E+01
   1.39534E+01
   1.39387E+01
   1.39128E+01
   1.50543E+01
   1.49066E+01
   1.47934E+01
   1.47085E+01
   1.46455E+01
   1.45983E+01
   1.45605E+01
   1.45258E+01
   1.51525E+01
   1.51187E+01
   1.50870E+01
   1.50586E+01
   1.50346E+01
   1.50161E+01
   1.50042E+01
   1.50000E+01
   1.58116E+01
   1.57654E+01
   1.57051E+01
   1.56252E+01
   1.55202E+01
   1.53847E+01
   1.52131E+01
   1.64221E+01
   1.63645E+01
   1.62776E+01
   1.61500E+01
   1.59701E+01
   1.57262E+01
   1.54067E+01
   1.69720E+01
   1.69040E+01
   1.67933E+01
   1.66228E+01
   1.63753E+01
   1.60337E+01
   1.55810E+01
   1.74491E+01
   1.73722E+01
   1.72408E+01
   1.70329E+01
   1.67268E+01
   1.63005E+01
   1.57322E+01
   1.78413E+01
   1.77571E+01
   1.76086E+01
   1.73701E+01
   1.70158E+01
   1.65199E+01
   1.58565E+01
   1.81364E+01
   1.80467E+01
   1.78854E+01
   1.76238E+01
   1.72333E+01
   1.66849E+01
   1.59501E+01
   1.83224E+01
   1.82292E+01
   1.80598E+01
   1.77837E+01
   1.73703E+01
   1.67889E+01
   1.60090E+01
   1.83871E+01
   1.82927E+01
   1.81205E+01
   1.78393E+01
   1.74180E+01
   1.68251E+01
   1.60296E+01
   1.83224E+01
   1.82292E+01
   1.80598E+01
   1.77837E+01
   1.73703E+01
   1.67889E+01
   1.60090E+01
   1.81364E+01
   1.80467E+01
   1.78854E+01
   1.76238E+01
   1.72333E+01
   1.66849E+01
   1.59501E+01
   1.78413E+01
   1.77571E+01
   1.76086E+01
   1.73701E+01
   1.70158E+01
   1.65199E+01
   1.58565E+01
   1.74491E+01
   1.73722E+01
   1.72408E+01
   1.70329E+01
   1.67268E+01
   1.63005E+01
   1.57322E+01
   1.69720E+01
   1.69040E+01
   1.67933E+01
   1.66228E+01
   1.63753E+01
   1.60337E+01
   1.55810E+01
   1.64221E+01
   1.63645E+01
   1.62776E+01
   1.61500E+01
   1.59701E+01
   1.57262E+01
   1.54067E+01
   1.58116E+01
   1.57654E+01
   1.57051E+01
   1.56252E+01
   1.55202E+01
   1.53847E+01
   1.52131E+01
   1.51525E+01
   1.51187E+01
   1.50870E+01
   1.50586E+01
   1.50346E+01
   1.50161E+01
   1.50042E+01
   1.44935E+01
   1.44719E+01
   1.44689E+01
   1.44920E+01
   1.45490E+01
   1.46475E+01
   1.47953E+01
   1.38829E+01
   1.38729E+01
   1.38963E+01
   1.39671E+01
   1.40991E+01
   1.43061E+01
   1.46018E+01
   1.33331E+01
   1.33333E+01
   1.33806E+01
   1.34944E+01
   1.36940E+01
   1.39985E+01
   1.44275E+01
   1.28560E+01
   1.28651E+01
   1.29332E+01
   1.30843E+01
   1.33424E+01
   1.37317E+01
   1.42762E+01
   1.24638E+01
   1.24803E+01
   1.25654E+01
   1.27471E+01
   1.30534E+01
   1.35124E+01
   1.41519E+01
   1.21686E+01
   1.21906E+01
   1.22886E+01
   1.24933E+01
   1.28360E+01
   1.33473E+01
   1.40583E+01
   1.19826E+01
   1.20081E+01
   1.21141E+01
   1.23335E+01
   1.26989E+01
   1.32433E+01
   1.39994E+01
   1.19179E+01
   1.19446E+01
   1.20535E+01
   1.22778E+01
   1.26512E+01
   1.32071E+01
   1.39789E+01
   1.19826E+01
   1.20081E+01
   1.21141E+01
   1.23335E+01
   1.26989E+01
   1.32433E+01
   1.39994E+01
   1.21686E+01
   1.21906E+01
   1.22886E+01
   1.24933E+01
   1.28360E+01
   1.33473E+01
   1.40583E+01
   1.24638E+01
   1.24803E+01
   1.25654E+01
   1.27471E+01
   1.30534E+01
   1.35124E+01
   1.41519E+01
   1.28560E+01
   1.28651E+01
   1.29332E+01
   1.30843E+01
   1.33424E+01
   1.37317E+01
   1.42762E+01
   1.33331E+01
   1.33333E+01
   1.33806E+01
   1.34944E+01
   1.36940E+01
   1.39985E+01
   1.44275E+01
   1.38829E+01
   1.38729E+01
   1.38963E+01
   1.39671E+01
   1.40991E+01
   1.43061E+01
   1.46018E+01
   1.44935E+01
   1.44719E+01
   1.44689E+01
   1.44920E+01
   1.45490E+01
   1.46475E+01
   1.47953E+01
   1.75313E+01
   1.75307E+01
   1.75269E+01
   1.75164E+01
   1.74961E+01
   1.74626E+01
   1.74126E+01
   1.73428E+01
   1.72500E+01
   1.77565E+01
   1.77559E+01
   1.77519E+01
   1.77410E+01
   1.77198E+01
   1.76848E+01
   1.76327E+01
   1.75599E+01
   1.74631E+01
   1.79405E+01
   1.79399E+01
   1.79355E+01
   1.79234E+01
   1.78999E+01
   1.78612E+01
   1.78034E+01
   1.77227E+01
   1.76154E+01
   1.80769E+01
   1.80762E+01
   1.80711E+01
   1.80574E+01
   1.80307E+01
   1.79865E+01
   1.79207E+01
   1.78289E+01
   1.77067E+01
   1.81590E+01
   1.81582E+01
   1.81524E+01
   1.81368E+01
   1.81063E+01
   1.80560E+01
   1.79810E+01
   1.78764E+01
   1.77371E+01
   1.81802E+01
   1.81793E+01
   1.81728E+01
   1.81552E+01
   1.81210E+01
   1.80646E+01
   1.79804E+01
   1.78630E+01
   1.77067E+01
   1.81339E+01
   1.81329E+01
   1.81258E+01
   1.81066E+01
   1.80691E+01
   1.80073E+01
   1.79151E+01
   1.77865E+01
   1.76154E+01
   1.80135E+01
   1.80125E+01
   1.80049E+01
   1.79845E+01
   1.79447E+01
   1.78792E+01
   1.77813E+01
   1.76448E+01
   1.74631E+01
   1.78125E+01
   1.78114E+01
   1.78037E+01
   1.77828E+01
   1.77422E+01
   1.76752E+01
   1.75752E+01
   1.74357E+01
   1.72500E+01
   1.75873E+01
   1.75862E+01
   1.75787E+01
   1.75583E+01
   1.75185E+01
   1.74529E+01
   1.73551E+01
   1.72186E+01
   1.70369E+01
   1.74032E+01
   1.74022E+01
   1.73951E+01
   1.73759E+01
   1.73384E+01
   1.72766E+01
   1.71844E+01
   1.70558E+01
   1.68846E+01
   1.72668E+01
   1.72659E+01
   1.72594E+01
   1.72418E+01
   1.72076E+01
   1.71512E+01
   1.70671E+01
   1.69496E+01
   1.67933E+01
   1.71847E+01
   1.71839E+01
   1.71781E+01
   1.71625E+01
   1.71320E+01
   1.70817E+01
   1.70068E+01
   1.69021E+01
   1.67629E+01
   1.71635E+01
   1.71628E+01
   1.71578E+01
   1.71440E+01
   1.71173E+01
   1.70732E+01
   1.70074E+01
   1.69155E+01
   1.67933E+01
   1.72098E+01
   1.72092E+01
   1.72048E+01
   1.71927E+01
   1.71692E+01
   1.71304E+01
   1.70726E+01
   1.69920E+01
   1.68846E+01
   1.73302E+01
   1.73296E+01
   1.73256E+01
   1.73147E+01
   1.72935E+01
   1.72586E+01
   1.72065E+01
   1.71337E+01
   1.70369E+01
   1.71324E+01
   1.69951E+01
   1.68446E+01
   1.66875E+01
   1.65304E+01
   1.63799E+01
   1.62426E+01
   1.61250E+01
   1.73417E+01
   1.72015E+01
   1.70489E+01
   1.68903E+01
   1.67320E+01
   1.65803E+01
   1.64415E+01
   1.63220E+01
   1.74836E+01
   1.73359E+01
   1.71779E+01
   1.70153E+01
   1.68538E+01
   1.66989E+01
   1.65563E+01
   1.64318E+01
   1.75603E+01
   1.74020E+01
   1.72364E+01
   1.70682E+01
   1.69021E+01
   1.67427E+01
   1.65948E+01
   1.64630E+01
   1.75740E+01
   1.74035E+01
   1.72292E+01
   1.70545E+01
   1.68832E+01
   1.67187E+01
   1.65647E+01
   1.64246E+01
   1.75269E+01
   1.73442E+01
   1.71610E+01
   1.69800E+01
   1.68034E+01
   1.66338E+01
   1.64736E+01
   1.63253E+01
   1.74209E+01
   1.72276E+01
   1.70368E+01
   1.68502E+01
   1.66690E+01
   1.64950E+01
   1.63294E+01
   1.61739E+01
   1.72584E+01
   1.70575E+01
   1.68614E+01
   1.66707E+01
   1.64864E+01
   1.63091E+01
   1.61398E+01
   1.59792E+01
   1.70414E+01
   1.68376E+01
   1.66394E+01
   1.64473E+01
   1.62617E+01
   1.60833E+01
   1.59125E+01
   1.57500E+01
   1.68321E+01
   1.66313E+01
   1.64351E+01
   1.62445E+01
   1.60601E+01
   1.58829E+01
   1.57136E+01
   1.55530E+01
   1.66902E+01
   1.64969E+01
   1.63061E+01
   1.61194E+01
   1.59383E+01
   1.57642E+01
   1.55987E+01
   1.54432E+01
   1.66135E+01
   1.64308E+01
   1.62477E+01
   1.60666E+01
   1.58900E+01
   1.57204E+01
   1.55602E+01
   1.54120E+01
   1.65998E+01
   1.64292E+01
   1.62549E+01
   1.60802E+01
   1.59089E+01
   1.57444E+01
   1.55904E+01
   1.54504E+01
   1.66469E+01
   1.64886E+01
   1.63230E+01
   1.61548E+01
   1.59887E+01
   1.58293E+01
   1.56814E+01
   1.55497E+01
   1.67529E+01
   1.66052E+01
   1.64472E+01
   1.62846E+01
   1.61231E+01
   1.59682E+01
   1.58256E+01
   1.57011E+01
   1.69154E+01
   1.67752E+01
   1.66227E+01
   1.64641E+01
   1.63057E+01
   1.61540E+01
   1.60152E+01
   1.58958E+01
   1.67813E+01
   1.68182E+01
   1.69189E+01
   1.70680E+01
   1.72500E+01
   1.74496E+01
   1.76514E+01
   1.78400E+01
   1.80000E+01
   1.72058E+01
   1.72355E+01
   1.73095E+01
   1.74187E+01
   1.75541E+01
   1.77067E+01
   1.78676E+01
   1.80275E+01
   1.81776E+01
   1.74239E+01
   1.74584E+01
   1.75252E+01
   1.76191E+01
   1.77345E+01
   1.78662E+01
   1.80087E+01
   1.81566E+01
   1.83045E+01
   1.74597E+01
   1.75082E+01
   1.75842E+01
   1.76835E+01
   1.78018E+01